[Molden Format]
[Title]
 Molden file created by orca_2mkl for BaseName=orca_H2O

[Atoms] AU
O    1   8          0.0000000000         0.0000000000         0.2253725182 
H    2   1          0.0000000000         1.4423126847        -0.9014881830 
H    3   1          0.0000000000        -1.4423126847        -0.9014881830 
[GTO]
  1 0
s   9 1.0 
    61420.0000000000         0.2523109447
     9199.0000000000         0.4711097668
     2091.0000000000         0.8141083530
      590.9000000000         1.3105521083
      192.3000000000         1.9452147541
       69.3200000000         2.5189696443
       26.9700000000         2.5959061389
       11.1000000000         1.7413677596
        4.6820000000         0.4962545287
s   9 1.0 
    61420.0000000000        -0.1560108294
     9199.0000000000        -0.2986035587
     2091.0000000000        -0.5125219219
      590.9000000000        -0.8405962883
      192.3000000000        -1.2550688345
       69.3200000000        -1.7417109539
       26.9700000000        -1.9637641678
       11.1000000000        -1.8492059614
        4.6820000000        -0.7339424471
s   1 1.0 
        1.4280000000         0.9310140775
s   1 1.0 
        0.5547000000         0.4580930645
s   1 1.0 
        0.2067000000         0.2184818928
p   3 1.0 
       63.4200000000         7.9918745596
       14.6600000000         8.8587972165
        4.4590000000         7.7143562521
p   1 1.0 
        1.5310000000         2.4274990927
p   1 1.0 
        0.5302000000         0.6448960875
p   1 1.0 
        0.1750000000         0.1613383640
d   1 1.0 
        3.7750000000        29.1457178613
d   1 1.0 
        1.3000000000         4.5120193149
d   1 1.0 
        0.4440000000         0.6884783394
f   1 1.0 
        2.6660000000        51.7827851834
f   1 1.0 
        0.8590000000         4.0502767393
g   1 1.0 
        1.8460000000        35.5309331412

  2 0
s   3 1.0 
       82.6400000000         0.4483321190
       12.4100000000         0.8272091211
        2.8240000000         1.3425357337
s   1 1.0 
        0.7977000000         0.6015750091
s   1 1.0 
        0.2581000000         0.2580780661
s   1 1.0 
        0.0898900000         0.1170020921
p   1 1.0 
        2.2920000000         4.0198361784
p   1 1.0 
        0.8380000000         1.1428654696
p   1 1.0 
        0.2920000000         0.3059628180
d   1 1.0 
        2.0620000000        10.1152178423
d   1 1.0 
        0.6620000000         1.3850694971
f   1 1.0 
        1.3970000000        12.0973986675

  3 0
s   3 1.0 
       82.6400000000         0.4483321190
       12.4100000000         0.8272091211
        2.8240000000         1.3425357337
s   1 1.0 
        0.7977000000         0.6015750091
s   1 1.0 
        0.2581000000         0.2580780661
s   1 1.0 
        0.0898900000         0.1170020921
p   1 1.0 
        2.2920000000         4.0198361784
p   1 1.0 
        0.8380000000         1.1428654696
p   1 1.0 
        0.2920000000         0.3059628180
d   1 1.0 
        2.0620000000        10.1152178423
d   1 1.0 
        0.6620000000         1.3850694971
f   1 1.0 
        1.3970000000        12.0973986675

[5D]
[7F]
[9G]
[MO]
 Sym=     1a
 Ene= -2.08052675054007E+01
 Spin= Alpha
 Occup= 1.000000
  1       0.991512159385
  2       0.000643743359
  3       0.019969770691
  4      -0.003364898509
  5       0.000622473860
  6      -0.000000000000
  7       0.000000000000
  8      -0.000878255408
  9       0.000000000000
 10      -0.000000000000
 11      -0.000344340611
 12      -0.000000000000
 13       0.000000000000
 14       0.000432277361
 15      -0.000000000000
 16       0.000000000000
 17       0.000090050492
 18      -0.000335569875
 19      -0.000000000000
 20       0.000000000000
 21       0.000694403626
 22       0.000000000000
 23       0.000148687975
 24       0.000000000000
 25      -0.000000000000
 26      -0.000134629768
 27      -0.000000000000
 28       0.000011614412
 29       0.000000000000
 30      -0.000000000000
 31       0.000438196090
 32       0.000000000000
 33       0.000064423234
 34       0.000000000000
 35      -0.000000000000
 36       0.000116944779
 37       0.000000000000
 38       0.000000000000
 39      -0.000000000000
 40      -0.000068378187
 41      -0.000000000000
 42       0.000000000000
 43      -0.000110023257
 44       0.000000000000
 45      -0.000000000000
 46       0.000000000000
 47      -0.000024079417
 48      -0.000000000000
 49       0.000000000000
 50      -0.000037186436
 51      -0.000000000000
 52       0.000000000000
 53      -0.000000000000
 54      -0.000018536010
 55      -0.000000000000
 56       0.000067339094
 57       0.000410894390
 58       0.000381723143
 59      -0.000135075070
 60      -0.000000000000
 61       0.000010298009
 62      -0.000009484596
 63       0.000000000000
 64      -0.000104904669
 65       0.000125391004
 66       0.000000000000
 67      -0.000065249287
 68       0.000134082833
 69      -0.000012929241
 70       0.000000000000
 71       0.000056560221
 72       0.000041724941
 73      -0.000000000000
 74       0.000041420520
 75       0.000000000000
 76       0.000043450962
 77       0.000034604550
 78      -0.000000000000
 79       0.000019494754
 80      -0.000000000000
 81       0.000044868218
 82       0.000073233458
 83      -0.000000000000
 84       0.000000000000
 85       0.000042152494
 86       0.000067339094
 87       0.000410894391
 88       0.000381723143
 89      -0.000135075070
 90      -0.000000000000
 91      -0.000010298009
 92      -0.000009484596
 93       0.000000000000
 94       0.000104904669
 95       0.000125391004
 96       0.000000000000
 97       0.000065249287
 98       0.000134082833
 99      -0.000012929241
100      -0.000000000000
101      -0.000056560221
102       0.000041724941
103      -0.000000000000
104       0.000041420521
105       0.000000000000
106      -0.000043450962
107       0.000034604550
108       0.000000000000
109       0.000019494754
110       0.000000000000
111      -0.000044868218
112       0.000073233458
113       0.000000000000
114       0.000000000000
115      -0.000042152494
 Sym=     1a
 Ene= -1.61022801164710E+00
 Spin= Alpha
 Occup= 1.000000
  1       0.001183014580
  2      -0.341082314116
  3      -0.275934858398
  4      -0.566157491163
  5      -0.181736263322
  6       0.000000000000
  7      -0.000000000000
  8       0.026639858334
  9       0.000000000000
 10      -0.000000000000
 11       0.054235531802
 12       0.000000000000
 13      -0.000000000000
 14       0.063245316855
 15       0.000000000000
 16      -0.000000000000
 17       0.008749471165
 18       0.000456362740
 19      -0.000000000000
 20       0.000000000000
 21      -0.001316385396
 22       0.000000000000
 23       0.003568656318
 24       0.000000000000
 25      -0.000000000000
 26      -0.005233538461
 27       0.000000000000
 28       0.000809981691
 29      -0.000000000000
 30       0.000000000000
 31      -0.002040138228
 32      -0.000000000000
 33      -0.000736278852
 34      -0.000000000000
 35      -0.000000000000
 36      -0.000541465789
 37      -0.000000000000
 38       0.000000000000
 39      -0.000000000000
 40      -0.001474470780
 41      -0.000000000000
 42       0.000000000000
 43      -0.001933866970
 44       0.000000000000
 45       0.000000000000
 46      -0.000000000000
 47       0.000191853503
 48       0.000000000000
 49      -0.000000000000
 50       0.000273939332
 51      -0.000000000000
 52      -0.000000000000
 53      -0.000000000000
 54       0.000049300107
 55      -0.000000000000
 56      -0.028767487352
 57      -0.065008585914
 58      -0.022874453727
 59       0.001728027729
 60       0.000000000000
 61       0.005349589009
 62      -0.003635334000
 63       0.000000000000
 64       0.008384500289
 65      -0.006611101008
 66       0.000000000000
 67       0.000693478699
 68      -0.001318761024
 69       0.000108109158
 70       0.000000000000
 71       0.002109990082
 72       0.001478548304
 73      -0.000000000000
 74      -0.000224391735
 75      -0.000000000000
 76       0.001300024312
 77       0.000459518654
 78       0.000000000000
 79       0.000472633509
 80      -0.000000000000
 81       0.000279360574
 82       0.000646735767
 83       0.000000000000
 84       0.000000000000
 85       0.000339169734
 86      -0.028767487352
 87      -0.065008585914
 88      -0.022874453727
 89       0.001728027729
 90      -0.000000000000
 91      -0.005349589009
 92      -0.003635334000
 93      -0.000000000000
 94      -0.008384500289
 95      -0.006611101008
 96      -0.000000000000
 97      -0.000693478699
 98      -0.001318761024
 99       0.000108109158
100       0.000000000000
101      -0.002109990082
102       0.001478548304
103       0.000000000000
104      -0.000224391735
105      -0.000000000000
106      -0.001300024312
107       0.000459518654
108      -0.000000000000
109       0.000472633509
110      -0.000000000000
111      -0.000279360574
112       0.000646735767
113      -0.000000000000
114      -0.000000000000
115      -0.000339169734
 Sym=     1a
 Ene= -8.95590670070931E-01
 Spin= Alpha
 Occup= 1.000000
  1      -0.000000000000
  2      -0.000000000000
  3      -0.000000000000
  4       0.000000000000
  5       0.000000000001
  6       0.000000000000
  7      -0.155976313272
  8      -0.000000000000
  9       0.000000000000
 10      -0.291809193096
 11      -0.000000000000
 12       0.000000000000
 13      -0.336953594450
 14      -0.000000000000
 15       0.000000000000
 16      -0.100800456227
 17      -0.000000000000
 18       0.000000000000
 19      -0.000000000000
 20       0.004818184450
 21       0.000000000000
 22      -0.000000000000
 23       0.000000000000
 24      -0.000000000000
 25       0.017509973927
 26      -0.000000000000
 27       0.000000000000
 28       0.000000000000
 29      -0.000000000000
 30       0.018626466461
 31      -0.000000000000
 32      -0.000000000000
 33       0.000000000000
 34      -0.000000000000
 35       0.000074989254
 36       0.000000000000
 37      -0.000000000000
 38      -0.000000000000
 39       0.000921794544
 40       0.000000000000
 41      -0.000000000000
 42       0.001027600661
 43       0.000000000000
 44       0.000000000000
 45      -0.000000000000
 46       0.002370875801
 47      -0.000000000000
 48      -0.000000000000
 49      -0.000423372661
 50      -0.000000000000
 51       0.000000000000
 52      -0.000000000000
 53       0.000234353209
 54      -0.000000000000
 55       0.000000000000
 56      -0.048665488722
 57      -0.123554358956
 58      -0.148601344715
 59      -0.032492314277
 60       0.000000000000
 61       0.004380231568
 62      -0.005522681475
 63       0.000000000000
 64       0.010000024307
 65      -0.014605073132
 66       0.000000000000
 67       0.014078627059
 68      -0.017697033055
 69      -0.001027651960
 70      -0.000000000000
 71       0.002464900046
 72       0.000696158490
 73      -0.000000000000
 74      -0.001305777421
 75       0.000000000000
 76       0.005412126272
 77       0.002287297050
 78      -0.000000000000
 79       0.000246023790
 80       0.000000000000
 81       0.000940910951
 82       0.000653490730
 83      -0.000000000000
 84       0.000000000000
 85       0.000062977308
 86       0.048665488722
 87       0.123554358956
 88       0.148601344714
 89       0.032492314277
 90       0.000000000000
 91       0.004380231568
 92       0.005522681475
 93       0.000000000000
 94       0.010000024307
 95       0.014605073131
 96       0.000000000000
 97       0.014078627058
 98       0.017697033054
 99       0.001027651960
100       0.000000000000
101       0.002464900046
102      -0.000696158490
103       0.000000000000
104       0.001305777421
105       0.000000000000
106       0.005412126272
107      -0.002287297050
108       0.000000000000
109      -0.000246023790
110       0.000000000000
111       0.000940910951
112      -0.000653490730
113       0.000000000000
114       0.000000000000
115       0.000062977308
 Sym=     1a
 Ene= -8.26537448058613E-01
 Spin= Alpha
 Occup= 1.000000
  1      -0.000000000000
  2       0.000000000000
  3      -0.000000000000
  4       0.000000000000
  5       0.000000000000
  6      -0.195910756271
  7      -0.000000000000
  8       0.000000000000
  9      -0.369102307423
 10      -0.000000000000
 11       0.000000000000
 12      -0.456190376645
 13      -0.000000000000
 14       0.000000000000
 15      -0.181338472511
 16      -0.000000000000
 17      -0.000000000000
 18      -0.000000000000
 19       0.001963544374
 20       0.000000000000
 21       0.000000000000
 22       0.000000000000
 23      -0.000000000000
 24       0.009307700985
 25       0.000000000000
 26      -0.000000000000
 27      -0.000000000000
 28      -0.000000000000
 29       0.013977469942
 30       0.000000000000
 31      -0.000000000000
 32       0.000000000000
 33      -0.000000000000
 34       0.001743934021
 35      -0.000000000000
 36       0.000000000000
 37      -0.000000000000
 38       0.001660253167
 39       0.000000000000
 40       0.000000000000
 41       0.003664003015
 42      -0.000000000000
 43       0.000000000000
 44       0.000000000000
 45       0.002894005592
 46       0.000000000000
 47      -0.000000000000
 48      -0.000176415582
 49      -0.000000000000
 50      -0.000000000000
 51      -0.000000000000
 52       0.000359963073
 53       0.000000000000
 54      -0.000000000000
 55      -0.000000000000
 56      -0.000000000000
 57      -0.000000000000
 58      -0.000000000000
 59       0.000000000000
 60      -0.003665990187
 61       0.000000000000
 62      -0.000000000000
 63      -0.009979345558
 64       0.000000000000
 65      -0.000000000000
 66      -0.012324540803
 67       0.000000000000
 68      -0.000000000000
 69      -0.000000000000
 70      -0.001274094112
 71       0.000000000000
 72       0.000000000000
 73       0.001759250229
 74      -0.000000000000
 75      -0.002434420163
 76       0.000000000000
 77       0.000000000000
 78       0.002463281383
 79       0.000000000000
 80      -0.000245890073
 81       0.000000000000
 82       0.000000000000
 83       0.001037424301
 84      -0.000683470053
 85      -0.000000000000
 86       0.000000000000
 87       0.000000000000
 88      -0.000000000000
 89      -0.000000000000
 90      -0.003665990187
 91       0.000000000000
 92       0.000000000000
 93      -0.009979345558
 94      -0.000000000000
 95      -0.000000000000
 96      -0.012324540803
 97      -0.000000000000
 98      -0.000000000000
 99       0.000000000000
100      -0.001274094112
101      -0.000000000000
102       0.000000000000
103      -0.001759250229
104      -0.000000000000
105      -0.002434420163
106      -0.000000000000
107       0.000000000000
108      -0.002463281383
109       0.000000000000
110      -0.000245890073
111      -0.000000000000
112       0.000000000000
113      -0.001037424301
114      -0.000683470053
115      -0.000000000000
 Sym=     1a
 Ene= -8.02638828123003E-01
 Spin= Alpha
 Occup= 1.000000
  1       0.001876922029
  2       0.094301401704
  3       0.077848708640
  4       0.173477687489
  5       0.185853544910
  6       0.000000000000
  7      -0.000000000000
  8       0.174540292963
  9       0.000000000000
 10      -0.000000000000
 11       0.324956759117
 12       0.000000000000
 13       0.000000000000
 14       0.386898675271
 15       0.000000000000
 16       0.000000000000
 17       0.161689553897
 18      -0.002449752273
 19      -0.000000000000
 20       0.000000000000
 21       0.002064122565
 22       0.000000000000
 23      -0.011043923387
 24      -0.000000000000
 25      -0.000000000000
 26       0.007037701868
 27       0.000000000000
 28      -0.016707013157
 29      -0.000000000000
 30      -0.000000000000
 31       0.007530655145
 32      -0.000000000000
 33      -0.001760181629
 34      -0.000000000000
 35       0.000000000000
 36       0.000619435568
 37       0.000000000000
 38      -0.000000000000
 39       0.000000000000
 40      -0.002777150440
 41      -0.000000000000
 42       0.000000000000
 43       0.002449439717
 44      -0.000000000000
 45      -0.000000000000
 46       0.000000000000
 47       0.000303219360
 48       0.000000000000
 49       0.000000000000
 50       0.000229222504
 51       0.000000000000
 52      -0.000000000000
 53      -0.000000000000
 54      -0.000036302727
 55       0.000000000000
 56      -0.029021674980
 57      -0.074848617497
 58      -0.087970087689
 59      -0.006482949212
 60       0.000000000000
 61       0.005111277534
 62      -0.000161601711
 63       0.000000000000
 64       0.010612261731
 65      -0.000335974779
 66       0.000000000000
 67       0.014375937801
 68       0.004076030805
 69       0.001195424015
 70       0.000000000000
 71       0.000833017210
 72       0.001638434243
 73      -0.000000000000
 74       0.002308105424
 75       0.000000000000
 76       0.001760735369
 77       0.002111300421
 78      -0.000000000000
 79       0.000656171685
 80       0.000000000000
 81      -0.000675977196
 82       0.000408294757
 83      -0.000000000000
 84       0.000000000000
 85       0.000455105216
 86      -0.029021674980
 87      -0.074848617497
 88      -0.087970087688
 89      -0.006482949211
 90       0.000000000000
 91      -0.005111277534
 92      -0.000161601711
 93       0.000000000000
 94      -0.010612261731
 95      -0.000335974779
 96       0.000000000000
 97      -0.014375937801
 98       0.004076030805
 99       0.001195424015
100       0.000000000000
101      -0.000833017210
102       0.001638434243
103       0.000000000000
104       0.002308105424
105       0.000000000000
106      -0.001760735368
107       0.002111300421
108       0.000000000000
109       0.000656171685
110      -0.000000000000
111       0.000675977196
112       0.000408294757
113       0.000000000000
114       0.000000000000
115      -0.000455105216
 Sym=     1a
 Ene= -1.77855937336034E-01
 Spin= Alpha
 Occup= 1.000000
  1       0.010083296454
  2       0.121346462410
  3       0.119345974937
  4       0.133033136478
  5       1.025512335094
  6      -0.000000000000
  7       0.000000000000
  8      -0.053138128690
  9      -0.000000000000
 10      -0.000000000000
 11      -0.085085082462
 12       0.000000000000
 13       0.000000000003
 14      -0.183108129173
 15       0.000000000000
 16       0.000000000004
 17      -0.222247290083
 18       0.000084456541
 19       0.000000000000
 20       0.000000000000
 21       0.001779957651
 22      -0.000000000000
 23       0.001005637400
 24      -0.000000000000
 25      -0.000000000000
 26       0.009359006456
 27       0.000000000000
 28       0.000853742652
 29      -0.000000000000
 30      -0.000000000001
 31      -0.017028751518
 32       0.000000000000
 33      -0.000621625825
 34       0.000000000000
 35       0.000000000000
 36      -0.002180696486
 37      -0.000000000000
 38       0.000000000000
 39       0.000000000000
 40       0.005986247429
 41       0.000000000000
 42       0.000000000000
 43       0.006997049964
 44      -0.000000000000
 45       0.000000000000
 46       0.000000000000
 47      -0.000632061424
 48      -0.000000000000
 49       0.000000000000
 50      -0.000745598785
 51       0.000000000000
 52      -0.000000000000
 53      -0.000000000000
 54      -0.000499373948
 55       0.000000000000
 56      -0.016407794336
 57      -0.082867463924
 58      -0.226119739326
 59      -0.742839451127
 60       0.000000000000
 61      -0.001236528433
 62       0.001268126036
 63      -0.000000000000
 64      -0.015639988496
 65       0.003936499318
 66      -0.000000000000
 67       0.043007448677
 68      -0.027548536657
 69      -0.000194283308
 70      -0.000000000000
 71      -0.000958035990
 72      -0.000965445695
 73       0.000000000000
 74      -0.002998447632
 75      -0.000000000000
 76      -0.000850775107
 77      -0.002291233758
 78       0.000000000000
 79      -0.000671724084
 80      -0.000000000000
 81      -0.001057239308
 82      -0.002117605794
 83       0.000000000000
 84      -0.000000000000
 85      -0.001053502631
 86      -0.016407794337
 87      -0.082867463922
 88      -0.226119739315
 89      -0.742839451123
 90      -0.000000000000
 91       0.001236528433
 92       0.001268126036
 93      -0.000000000000
 94       0.015639988498
 95       0.003936499319
 96      -0.000000000000
 97      -0.043007448673
 98      -0.027548536654
 99      -0.000194283308
100      -0.000000000000
101       0.000958035990
102      -0.000965445695
103      -0.000000000000
104      -0.002998447632
105       0.000000000000
106       0.000850775108
107      -0.002291233759
108      -0.000000000000
109      -0.000671724084
110      -0.000000000000
111       0.001057239308
112      -0.002117605794
113      -0.000000000000
114      -0.000000000000
115       0.001053502631
 Sym=     1a
 Ene= 9.99453148612943E-02
 Spin= Alpha
 Occup= 0.000000
  1       0.000000000000
  2       0.000000000000
  3       0.000000000002
  4      -0.000000000007
  5      -0.000000000022
  6       0.000000000000
  7      -0.073490564519
  8      -0.000000000000
  9       0.000000000000
 10      -0.131600555752
 11      -0.000000000000
 12       0.000000000000
 13      -0.220671213512
 14       0.000000000005
 15       0.000000000000
 16      -0.773698013112
 17       0.000000000007
 18       0.000000000000
 19       0.000000000000
 20       0.001323814644
 21      -0.000000000000
 22      -0.000000000000
 23      -0.000000000000
 24      -0.000000000000
 25      -0.010809517575
 26       0.000000000000
 27       0.000000000000
 28      -0.000000000000
 29       0.000000000000
 30       0.060794341890
 31       0.000000000002
 32      -0.000000000000
 33      -0.000000000000
 34       0.000000000000
 35       0.001267082141
 36      -0.000000000000
 37       0.000000000000
 38      -0.000000000000
 39       0.001255499660
 40      -0.000000000000
 41       0.000000000000
 42      -0.005668329650
 43      -0.000000000001
 44       0.000000000000
 45       0.000000000000
 46       0.001672974604
 47       0.000000000000
 48       0.000000000000
 49       0.000970686329
 50       0.000000000000
 51       0.000000000000
 52      -0.000000000000
 53       0.000292801901
 54       0.000000000000
 55      -0.000000000000
 56       0.006748110949
 57       0.057266938848
 58       0.269223357821
 59       1.767173773798
 60       0.000000000000
 61      -0.000627131867
 62       0.000972367666
 63       0.000000000000
 64       0.021598426170
 65      -0.026290747100
 66      -0.000000000000
 67      -0.139592271173
 68       0.116611356815
 69      -0.001149226462
 70       0.000000000000
 71       0.002634455886
 72       0.001839603475
 73      -0.000000000000
 74      -0.005161039835
 75      -0.000000000000
 76      -0.007347854885
 77      -0.011287036231
 78       0.000000000000
 79      -0.000508532411
 80       0.000000000000
 81       0.001918883424
 82       0.000901283800
 83       0.000000000000
 84       0.000000000000
 85       0.000100961431
 86      -0.006748110949
 87      -0.057266938845
 88      -0.269223357793
 89      -1.767173773797
 90       0.000000000000
 91      -0.000627131867
 92      -0.000972367666
 93      -0.000000000000
 94       0.021598426173
 95       0.026290747102
 96      -0.000000000000
 97      -0.139592271164
 98      -0.116611356809
 99       0.001149226462
100      -0.000000000000
101       0.002634455887
102      -0.001839603475
103      -0.000000000000
104       0.005161039835
105      -0.000000000000
106      -0.007347854883
107       0.011287036230
108      -0.000000000000
109       0.000508532411
110       0.000000000000
111       0.001918883424
112      -0.000901283800
113      -0.000000000000
114      -0.000000000000
115       0.000100961431
 Sym=     1a
 Ene= 3.67114172586469E-01
 Spin= Alpha
 Occup= 0.000000
  1       0.024710769162
  2       0.008954728760
  3       0.194974277785
  4      -0.980774838209
  5      -7.319530842701
  6       0.000000000000
  7      -0.000000000004
  8      -0.089916787567
  9       0.000000000000
 10      -0.000000000002
 11      -0.183957845576
 12       0.000000000000
 13      -0.000000000111
 14       0.621892613912
 15      -0.000000000000
 16      -0.000000000228
 17       3.297511485894
 18      -0.002620221030
 19       0.000000000000
 20      -0.000000000002
 21      -0.001898042884
 22      -0.000000000000
 23       0.021464587599
 24      -0.000000000000
 25       0.000000000006
 26       0.016113420846
 27       0.000000000000
 28      -0.131440125016
 29       0.000000000000
 30       0.000000000061
 31       0.518556009685
 32      -0.000000000000
 33       0.000155409125
 34       0.000000000000
 35       0.000000000000
 36      -0.000632495737
 37       0.000000000000
 38       0.000000000000
 39       0.000000000000
 40      -0.038661593669
 41       0.000000000000
 42      -0.000000000008
 43      -0.093237559057
 44      -0.000000000000
 45      -0.000000000000
 46      -0.000000000005
 47       0.006213978842
 48       0.000000000000
 49      -0.000000000000
 50       0.009103820593
 51      -0.000000000000
 52      -0.000000000000
 53       0.000000000001
 54       0.005164154332
 55       0.000000000000
 56      -0.018212769763
 57       0.129982325640
 58       3.951695736379
 59       0.513317203018
 60      -0.000000000000
 61       0.008028848101
 62      -0.001812010724
 63      -0.000000000000
 64      -0.198040690306
 65       0.153473656746
 66       0.000000000000
 67      -1.330021026554
 68       0.958152318593
 69       0.001435093337
 70      -0.000000000000
 71      -0.002901572437
 72      -0.004334261719
 73       0.000000000000
 74       0.012839813987
 75       0.000000000000
 76      -0.185749333397
 77      -0.114531225349
 78      -0.000000000000
 79      -0.004927474060
 80       0.000000000000
 81      -0.008108822063
 82      -0.016148133269
 83       0.000000000000
 84      -0.000000000000
 85      -0.009013168822
 86      -0.018212769769
 87       0.129982325579
 88       3.951695735761
 89       0.513317203103
 90       0.000000000000
 91      -0.008028848096
 92      -0.001812010720
 93      -0.000000000000
 94       0.198040690246
 95       0.153473656704
 96       0.000000000000
 97       1.330021026454
 98       0.958152318521
 99       0.001435093337
100      -0.000000000000
101       0.002901572434
102      -0.004334261717
103      -0.000000000000
104       0.012839813990
105       0.000000000000
106       0.185749333370
107      -0.114531225333
108       0.000000000000
109      -0.004927474059
110      -0.000000000000
111       0.008108822062
112      -0.016148133267
113       0.000000000000
114       0.000000000000
115       0.009013168820
 Sym=     1a
 Ene= 3.72047057507464E-01
 Spin= Alpha
 Occup= 0.000000
  1      -0.000000000002
  2      -0.000000000000
  3      -0.000000000016
  4       0.000000000083
  5       0.000000000662
  6      -0.000000000000
  7      -0.043455552829
  8       0.000000000009
  9       0.000000000000
 10      -0.042389751707
 11       0.000000000018
 12      -0.000000000000
 13      -0.913903353821
 14      -0.000000000049
 15      -0.000000000000
 16      -2.002856901466
 17      -0.000000000306
 18       0.000000000000
 19       0.000000000000
 20      -0.014933377371
 21       0.000000000000
 22       0.000000000000
 23      -0.000000000002
 24      -0.000000000000
 25       0.040912386408
 26      -0.000000000001
 27       0.000000000000
 28       0.000000000013
 29       0.000000000000
 30       0.510979936028
 31      -0.000000000046
 32       0.000000000000
 33      -0.000000000000
 34      -0.000000000000
 35       0.003206388270
 36       0.000000000000
 37      -0.000000000000
 38      -0.000000000000
 39       0.001305110150
 40       0.000000000003
 41       0.000000000000
 42      -0.070251617416
 43       0.000000000008
 44      -0.000000000000
 45      -0.000000000000
 46      -0.043715363479
 47      -0.000000000000
 48      -0.000000000000
 49       0.000251206378
 50      -0.000000000001
 51       0.000000000000
 52       0.000000000000
 53       0.008909471968
 54      -0.000000000000
 55       0.000000000000
 56       0.033873554388
 57       0.274900985279
 58       2.737387210561
 59      -0.575256046818
 60      -0.000000000000
 61       0.022688290176
 62      -0.021765668771
 63      -0.000000000000
 64      -0.258906954114
 65       0.180084528469
 66       0.000000000000
 67      -0.322012642132
 68       0.217977585743
 69       0.000124112387
 70      -0.000000000000
 71      -0.010425502731
 72      -0.009233576545
 73       0.000000000000
 74      -0.013543964470
 75      -0.000000000000
 76      -0.099579219881
 77      -0.058112487343
 78       0.000000000000
 79      -0.006463023953
 80       0.000000000000
 81      -0.002227186441
 82      -0.008762601857
 83       0.000000000000
 84      -0.000000000000
 85      -0.004045130279
 86      -0.033873554384
 87      -0.274900985300
 88      -2.737387211263
 89       0.575256046715
 90       0.000000000000
 91       0.022688290178
 92       0.021765668771
 93      -0.000000000000
 94      -0.258906954147
 95      -0.180084528494
 96       0.000000000000
 97      -0.322012642375
 98      -0.217977585916
 99      -0.000124112387
100       0.000000000000
101      -0.010425502732
102       0.009233576545
103       0.000000000000
104       0.013543964468
105       0.000000000000
106      -0.099579219913
107       0.058112487363
108       0.000000000000
109       0.006463023954
110       0.000000000000
111      -0.002227186442
112       0.008762601860
113       0.000000000000
114       0.000000000000
115      -0.004045130281
 Sym=     1a
 Ene= 3.99697088965618E-01
 Spin= Alpha
 Occup= 0.000000
  1       0.012157240040
  2      -0.064987785362
  3       0.089499754540
  4      -0.920541297296
  5      -1.347305028266
  6      -0.000000000000
  7       0.000000000000
  8       0.044062464203
  9      -0.000000000000
 10       0.000000000001